TITL p21c in P2(1)/c
    p21c.res
    created by SHELXL-2018/3 at 20:37:07 on 26-Oct-2021
CELL 0.71073 10.5086 20.9035 20.5072 90 94.13 90
ZERR 4 0.0003 0.0005 0.0005 0 0.001 0
LATT 1
SYMM  -X, 0.5+Y, 0.5-Z
SFAC C  H  O  F  Al  Ga
UNIT 1  2  3  4  5  6
REM Restraints for Fragment oc(cf3)3, Nonafluoro-tert-butoxy, [(CF3)3CO]-
REM from: TURBOMOLE V6.0 B-P86/def-SV(P). Please cite
REM https://doi.org/10.1107/S1600576718004508
SADI_CCF3 0.02 C1 C2 C1 C3 C1 C4
SADI_CCF3 0.02 F1 C2 F2 C2 F3 C2 F4 C3 F5 C3 F6 C3 F7 C4 F8 C4 F9 C4
SADI_CCF3 0.04 C2 C3 C3 C4 C2 C4
SADI_CCF3 0.04 O1 C2 O1 C3 O1 C4
SADI_CCF3 0.04 F1 F2 F2 F3 F3 F1 F4 F5 F5 F6 F6 F4 F7 F8 F8 F9 F9 F7
SADI_CCF3 0.02 O1 C1
SADI_CCF3 0.04 F1 C1 F2 C1 F3 C1 F4 C1 F5 C1 F6 C1 F7 C1 F8 C1 F9 C1
SIMU_CCF3 O1 > F9
RIGU_CCF3 O1 > F9
SAME_CCF3 O1 > F9
SIMU 0.04 0.08 1
LIST 6 ! automatically inserted. Change 6 to 4 for CHECKCIF!!
L.S. 0
PLAN 20
TEMP -173.18
BOND $H
fmap 2
WGHT    0.049400    0.393100
FVAR       0.08657   0.55472   0.47783   0.08667   0.50000   0.50000
GA1   6    0.639537    0.561734    0.237765    11.00000    0.02390    0.02498 =
         0.02478   -0.00010   -0.00161    0.00151
AL1   5    0.064277    0.260192    0.478693    11.00000    0.01604    0.01960 =
         0.01393   -0.00025   -0.00229    0.00120
RESI 1 CCF3
O1    3   -0.097333    0.260839    0.489319    11.00000    0.01646    0.02685 =
         0.01710   -0.00475    0.00109    0.00030
C1    1   -0.187590    0.282802    0.527502    11.00000    0.01685    0.02321 =
         0.01747   -0.00104   -0.00115    0.00124
C2    1   -0.154134    0.264457    0.600242    11.00000    0.01913    0.03718 =
         0.02260   -0.00052    0.00075    0.00569
F1    4   -0.175148    0.202379    0.610018    11.00000    0.04001    0.04332 =
         0.02898    0.01290    0.00178    0.00337
F2    4   -0.222351    0.297076    0.641490    11.00000    0.03217    0.06652 =
         0.02001   -0.00741    0.00370    0.01526
F3    4   -0.031485    0.275508    0.616693    11.00000    0.02271    0.05659 =
         0.02238   -0.00621   -0.00729    0.00703
C3    1   -0.200935    0.356798    0.522248    11.00000    0.02303    0.02742 =
         0.02952   -0.00473   -0.00079    0.00098
F4    4   -0.189545    0.376171    0.461265    11.00000    0.04646    0.02873 =
         0.03450    0.00638    0.00440    0.00251
F5    4   -0.110445    0.386655    0.560099    11.00000    0.02708    0.03259 =
         0.04577   -0.01532   -0.00130   -0.00357
F6    4   -0.313488    0.377197    0.540436    11.00000    0.02280    0.03289 =
         0.04419   -0.00706    0.00083    0.00957
C4    1   -0.315939    0.251747    0.504074    11.00000    0.02120    0.02815 =
         0.02554    0.00014   -0.00040    0.00057
F7    4   -0.362246    0.278328    0.447790    11.00000    0.02270    0.04193 =
         0.02703    0.00125   -0.01070    0.00094
F8    4   -0.404499    0.257692    0.547031    11.00000    0.01979    0.04901 =
         0.03552   -0.00080    0.00514   -0.00196
F9    4   -0.301254    0.189508    0.492503    11.00000    0.02751    0.02650 =
         0.04158   -0.00426   -0.00197   -0.00529
RESI 0
RESI 2 CCF3
O1    3    0.120519    0.336708    0.494180    11.00000    0.01534    0.02071 =
         0.02347   -0.00112   -0.00162   -0.00110
C1    1    0.222910    0.375175    0.503764    11.00000    0.01546    0.02321 =
         0.01981    0.00135   -0.00380   -0.00141
C2    1    0.325658    0.359198    0.455865    11.00000    0.02231    0.02960 =
         0.03055   -0.00079    0.00070   -0.00085
F1    4    0.342803    0.296337    0.451953    11.00000    0.02462    0.03072 =
         0.04947   -0.00979    0.00509    0.00403
F2    4    0.439181    0.385183    0.473497    11.00000    0.01742    0.04291 =
         0.05092   -0.00475    0.00335   -0.00684
F3    4    0.290786    0.379755    0.395715    11.00000    0.03842    0.04675 =
         0.02561    0.00189    0.00755   -0.00311
C3    1    0.178552    0.445264    0.492708    11.00000    0.02231    0.02450 =
         0.02888    0.00159   -0.00135    0.00034
F4    4    0.115785    0.466199    0.542736    11.00000    0.03156    0.02798 =
         0.03925   -0.00931    0.00256    0.00330
F5    4    0.100140    0.449622    0.439047    11.00000    0.03661    0.03190 =
         0.03453    0.00712   -0.01134    0.00794
F6    4    0.276160    0.485267    0.485682    11.00000    0.03279    0.02595 =
         0.04669    0.00447    0.00221   -0.00685
C4    1    0.282140    0.368755    0.575364    11.00000    0.02750    0.02956 =
         0.02598   -0.00034   -0.00821   -0.00353
F7    4    0.192069    0.365406    0.617326    11.00000    0.04107
F8    4    0.358312    0.417814    0.593845    11.00000    0.03411    0.03841 =
         0.03495   -0.00331   -0.01511   -0.00947
F9    4    0.352136    0.315149    0.582761    11.00000    0.03617    0.03375 =
         0.04296    0.00761   -0.02079    0.00425
RESI 0
C34   1    0.369783    0.549012    0.213258    11.00000    0.02139    0.02098 =
         0.03005   -0.00543   -0.00343    0.00062
AFIX  43
H34   2    0.340453    0.506775    0.203947    11.00000    0.01678
AFIX   0
C33   1    0.380624    0.569547    0.277837    11.00000    0.01641    0.03209 =
         0.02432    0.00150   -0.00179    0.00391
C32   1    0.425061    0.631219    0.290578    11.00000    0.01540    0.03263 =
         0.02588   -0.00970   -0.00291    0.00536
AFIX  43
H32   2    0.435471    0.645572    0.334593    11.00000    0.02931
AFIX   0
C35   1    0.400339    0.588082    0.161704    11.00000    0.01769    0.02799 =
         0.02197   -0.00087   -0.00643    0.00183
C30   1    0.443701    0.649858    0.176303    11.00000    0.02060    0.02527 =
         0.02535    0.00481   -0.00296    0.00349
AFIX  43
H30   2    0.466190    0.677078    0.141862    11.00000    0.02288
AFIX   0
C36   1    0.383604    0.564991    0.092215    11.00000    0.04410    0.03597 =
         0.02425   -0.00109   -0.00262   -0.00165
AFIX 137
H36A  2    0.295881    0.573223    0.074728    11.00000    0.08536
H36B  2    0.400892    0.518960    0.090841    11.00000    0.07235
H36C  2    0.443126    0.587733    0.065761    11.00000    0.03953
AFIX   0
C31   1    0.454755    0.672564    0.240682    11.00000    0.01677    0.02580 =
         0.03409   -0.00402   -0.00413    0.00312
C37   1    0.341063    0.527562    0.332406    11.00000    0.02629    0.04392 =
         0.02921    0.00085    0.00166   -0.00316
AFIX 137
H37A  2    0.409860    0.525996    0.367268    11.00000    0.04787
H37B  2    0.323667    0.484276    0.315706    11.00000    0.03117
H37C  2    0.263886    0.545059    0.349798    11.00000    0.05681
AFIX   0
C38   1    0.494450    0.740480    0.255440    11.00000    0.04003    0.02926 =
         0.04748   -0.00796   -0.00531   -0.00210
AFIX 137
H38A  2    0.530352    0.759253    0.217006    11.00000    0.04935
H38B  2    0.558884    0.741048    0.292442    11.00000    0.08640
H38C  2    0.419973    0.765384    0.266487    11.00000    0.07113
AFIX   0
C21   1    0.721952    0.447996    0.167558    11.00000    0.02909    0.02381 =
         0.02625   -0.00368   -0.00097    0.00728
C20   1    0.838114    0.474745    0.190315    11.00000    0.02425    0.02965 =
         0.02895    0.00498    0.00432    0.00748
AFIX  43
H20   2    0.894077    0.490608    0.159724    11.00000    0.02416
AFIX   0
C23   1    0.673712    0.429296    0.280485    11.00000    0.03068    0.01983 =
         0.03039    0.00392    0.00272    0.00407
C25   1    0.874229    0.478794    0.256966    11.00000    0.01909    0.02785 =
         0.03396    0.00283   -0.00807    0.00503
C22   1    0.641315    0.425753    0.213217    11.00000    0.02699    0.02204 =
         0.03535   -0.00133   -0.00308    0.00136
AFIX  43
H22   2    0.561621    0.407551    0.198330    11.00000    0.03586
AFIX   0
C28   1    0.685493    0.443423    0.095171    11.00000    0.05498    0.03699 =
         0.02490   -0.00792   -0.00591    0.00532
AFIX 137
H28A  2    0.670234    0.486438    0.077275    11.00000    0.11928
H28B  2    0.607707    0.417763    0.087943    11.00000    0.17302
H28C  2    0.754863    0.423099    0.073289    11.00000    0.11152
AFIX   0
C27   1    0.588188    0.402058    0.329086    11.00000    0.04077    0.03924 =
         0.04107    0.00881    0.00761   -0.00166
AFIX 137
H27A  2    0.583206    0.431949    0.365629    11.00000    0.05755
H27B  2    0.622863    0.361123    0.345483    11.00000    0.05051
H27C  2    0.502672    0.395324    0.307868    11.00000    0.05187
AFIX   0
C24   1    0.790880    0.456385    0.301004    11.00000    0.03275    0.02730 =
         0.02228   -0.00035   -0.00426    0.01003
AFIX  43
H24   2    0.814269    0.459576    0.346505    11.00000    0.03906
AFIX   0
C26   1    1.002913    0.505252    0.281206    11.00000    0.02889    0.06518 =
         0.04911    0.00911   -0.01158   -0.00415
AFIX 137
H26A  2    1.045387    0.523260    0.244361    11.00000    0.05667
H26B  2    1.055430    0.470827    0.301363    11.00000    0.10007
H26C  2    0.991352    0.538823    0.313610    11.00000    0.10926
AFIX   0
RESI 3 CCF3
PART 1 31
O1    3    0.160657    0.210713    0.528390    31.00000    0.01791
C1    1    0.198251    0.149950    0.543100    31.00000    0.01848
C2    1    0.283937    0.124792    0.490467    31.00000    0.02726
F1    4    0.350515    0.072862    0.510108    31.00000    0.02673
F2    4    0.360303    0.171390    0.472634    31.00000    0.03174
F3    4    0.211241    0.104228    0.438057    31.00000    0.04355
C3    1    0.085147    0.103825    0.549661    31.00000    0.03722
F4    4    0.107483    0.041798    0.554953    31.00000    0.03411
F5    4   -0.005592    0.113595    0.498704    31.00000    0.04167
F6    4    0.031600    0.112723    0.606841    31.00000    0.05330
C4    1    0.279436    0.153379    0.610471    31.00000    0.02533
F7    4    0.215892    0.186822    0.654049    31.00000    0.03260
F8    4    0.302383    0.095078    0.636131    31.00000    0.02624
F9    4    0.394885    0.176638    0.601337    31.00000    0.03305
PART 0
RESI 0
RESI 4 CCF3
PART 1 21
O1    3    0.084733    0.236279    0.399375    21.00000    0.02090
C1    1    0.035183    0.231866    0.336792    21.00000    0.02303
C2    1    0.151033    0.233120    0.294190    21.00000    0.02669
F1    4    0.122558    0.215107    0.232406    21.00000    0.02604
F2    4    0.241702    0.192158    0.319734    21.00000    0.02852
F3    4    0.196852    0.292133    0.290167    21.00000    0.03627
C3    1   -0.052217    0.289418    0.318604    21.00000    0.02720
F4    4   -0.000389    0.345234    0.344510    21.00000    0.02640
F5    4   -0.076483    0.296022    0.255115    21.00000    0.02867
F6    4   -0.169375    0.279976    0.339025    21.00000    0.03188
C4    1   -0.039637    0.168586    0.326136    21.00000    0.03134
F7    4   -0.119697    0.162785    0.374751    21.00000    0.03245
F8    4   -0.109909    0.165605    0.269034    21.00000    0.03575
F9    4    0.040790    0.118537    0.324841    21.00000    0.03460
PART 0
RESI 0
RESI CCF3 5
PART 2 -21
O1    3    0.078398    0.233800    0.400647   -21.00000    0.02227
C1    1    0.030763    0.234056    0.337325   -21.00000    0.02041
C2    1    0.123784    0.194483    0.298110   -21.00000    0.02879
F1    4    0.111319    0.131823    0.311002   -21.00000    0.03669
F2    4    0.099297    0.196548    0.234378   -21.00000    0.02782
F3    4    0.247654    0.213320    0.314370   -21.00000    0.02742
C3    1    0.018703    0.302662    0.308065   -21.00000    0.03124
F4    4   -0.038948    0.337938    0.352655   -21.00000    0.02956
F5    4    0.131177    0.324871    0.293353   -21.00000    0.04372
F6    4   -0.046861    0.307200    0.251040   -21.00000    0.02838
C4    1   -0.102922    0.201374    0.332928   -21.00000    0.03330
F7    4   -0.193711    0.242846    0.346709   -21.00000    0.03449
F8    4   -0.135545    0.181670    0.272288   -21.00000    0.03073
F9    4   -0.101359    0.147708    0.371347   -21.00000    0.03359
PART 0
RESI 0
RESI CCF3 6
PART 2 -31
O1    3    0.138822    0.205876    0.532397   -31.00000    0.01823
C1    1    0.183102    0.146640    0.546361   -31.00000    0.02299
C2    1    0.316279    0.137536    0.519697   -31.00000    0.03427
F1    4    0.406575    0.168293    0.556651   -31.00000    0.04980
F2    4    0.359250    0.077469    0.522174   -31.00000    0.04121
F3    4    0.318641    0.156666    0.457242   -31.00000    0.03157
C3    1    0.092287    0.094646    0.515935   -31.00000    0.02650
F4    4   -0.029417    0.112986    0.522852   -31.00000    0.02914
F5    4    0.109643    0.085603    0.452427   -31.00000    0.04055
F6    4    0.118246    0.038614    0.538682   -31.00000    0.03568
C4    1    0.193234    0.141152    0.621637   -31.00000    0.02908
F7    4    0.077063    0.131792    0.642666   -31.00000    0.03995
F8    4    0.259673    0.089368    0.642947   -31.00000    0.03791
F9    4    0.250767    0.193883    0.648247   -31.00000    0.02853
PART 0
RESI 0
HKLF 4




REM  p21c in P2(1)/c
REM wR2 = 0.1456, GooF = S = 1.423, Restrained GooF = 1.547 for all data
REM R1 = 0.0584 for 7085 Fo > 4sig(Fo) and 0.1003 for all 10786 data
REM 687 parameters refined using 5212 restraints

END  
     
WGHT      0.0674      9.4721 

REM Highest difference peak  1.093,  deepest hole -0.914,  1-sigma level  0.103
Q1    1   0.1635  0.0916  0.4460  11.00000  0.05    1.09
Q2    1  -0.1910  0.2603  0.3395  11.00000  0.05    0.99
Q3    1   0.1729  0.3853  0.6201  11.00000  0.05    0.95
Q4    1   0.2137  0.3483  0.6160  11.00000  0.05    0.91
Q5    1   0.0426  0.1238  0.6280  11.00000  0.05    0.84
Q6    1  -0.1508  0.1599  0.2858  11.00000  0.05    0.84
Q7    1   0.2566  0.1143  0.4294  11.00000  0.05    0.81
Q8    1  -0.2087  0.2176  0.3584  11.00000  0.05    0.80
Q9    1   0.0611  0.0802  0.4625  11.00000  0.05    0.75
Q10   1   0.2816  0.1098  0.6556  11.00000  0.05    0.74
Q11   1  -0.1434  0.3071  0.3407  11.00000  0.05    0.73
Q12   1  -0.0767  0.1815  0.2533  11.00000  0.05    0.73
Q13   1   0.2760  0.0740  0.6227  11.00000  0.05    0.72
Q14   1  -0.0875  0.3204  0.2634  11.00000  0.05    0.72
Q15   1   0.3900  0.0874  0.5002  11.00000  0.05    0.72
Q16   1   0.3638  0.1764  0.6272  11.00000  0.05    0.71
Q17   1   0.0161  0.0993  0.5823  11.00000  0.05    0.71
Q18   1   0.4152  0.1656  0.5333  11.00000  0.05    0.71
Q19   1   0.4104  0.1761  0.5822  11.00000  0.05    0.68
Q20   1   0.3150  0.0597  0.5247  11.00000  0.05    0.68
